 Gaussian 16, Revision C.01,
 Gaussian 16:  ES64L-G16RevC.01  3-Jul-2019

 ----------------------------------------------------------------------
 # irc=(calcfc,maxpoints=40,stepsize=5) wb97xd/6-311+g(d,p) integral=ul
 trafine
 ----------------------------------------------------------------------

 -------------------
 Title Card Required
 -------------------
 Symbolic Z-matrix:
 Charge =  0 Multiplicity = 1

 SCF Done:  E(RwB97XD) =  -615.786511685     A.U. after   18 cycles
 SCF Done:  E(RwB97XD) =  -615.786535606     A.U. after   15 cycles
 SCF Done:  E(RwB97XD) =  -615.786606247     A.U. after   15 cycles
 SCF Done:  E(RwB97XD) =  -615.786721947     A.U. after   15 cycles
 SCF Done:  E(RwB97XD) =  -615.786880215     A.U. after   15 cycles
 SCF Done:  E(RwB97XD) =  -615.787078159     A.U. after   15 cycles
 SCF Done:  E(RwB97XD) =  -615.787312567     A.U. after   15 cycles
 SCF Done:  E(RwB97XD) =  -615.787580142     A.U. after   15 cycles
 SCF Done:  E(RwB97XD) =  -615.787877686     A.U. after   15 cycles
 SCF Done:  E(RwB97XD) =  -615.788202197     A.U. after   15 cycles
 SCF Done:  E(RwB97XD) =  -615.807506611     A.U. after   13 cycles
 SCF Done:  E(RwB97XD) =  -615.808576852     A.U. after   13 cycles
 SCF Done:  E(RwB97XD) =  -615.809642342     A.U. after   13 cycles
 SCF Done:  E(RwB97XD) =  -615.810700377     A.U. after   13 cycles
 SCF Done:  E(RwB97XD) =  -615.811748328     A.U. after   13 cycles
 SCF Done:  E(RwB97XD) =  -615.812783605     A.U. after   13 cycles
 SCF Done:  E(RwB97XD) =  -615.813803622     A.U. after   13 cycles
 SCF Done:  E(RwB97XD) =  -615.814805786     A.U. after   13 cycles
 SCF Done:  E(RwB97XD) =  -615.815787514     A.U. after   13 cycles
 SCF Done:  E(RwB97XD) =  -615.816746275     A.U. after   13 cycles

                          Input orientation:
 ---------------------------------------------------------------------
 Center     Atomic      Atomic             Coordinates (Angstroms)
 Number     Number       Type             X           Y           Z
 ---------------------------------------------------------------------
      1          6           0        1.331245    0.550850   -0.159296
      2          6           0        2.236950    0.624369   -1.194193
      3          6           0        1.546384   -0.195652    0.988006
      4          6           0        3.298640   -0.276452   -1.121654
      5          1           0        2.117194    1.307830   -2.025979
      6          6           0        2.525967   -1.171199    1.018347
      7          6           0        3.394754   -1.200316   -0.077320
      8          1           0        4.044252   -0.292694   -1.908831
      9          1           0        2.663478   -1.846927    1.855033
     10          1           0        4.198365   -1.928535   -0.096839
     11          6           0        0.494653    0.474026    1.815225
     12          1           0       -0.215494   -0.130195    2.385816
     13          1           0        0.892923    1.294681    2.413279
     14          6           0        0.001351    1.096302    0.193299
     15          8           0       -0.159980    2.409283   -0.284523
     16          1           0       -1.081685    2.565056   -0.497844
     17          6           0       -1.238841    0.276136   -0.081456
     18          6           0       -1.195259   -1.016192   -0.592613
     19          6           0       -2.474241    0.808012    0.306575
     20          6           0       -2.359878   -1.770008   -0.691246
     21          1           0       -0.245035   -1.439408   -0.898191
     22          6           0       -3.637453    0.061486    0.190936
     23          1           0       -2.528164    1.796405    0.754969
     24          6           0       -3.582176   -1.237664   -0.301444
     25          1           0       -2.309690   -2.780326   -1.081832
     26          1           0       -4.584081    0.486483    0.505549
     27          1           0       -4.486233   -1.830420   -0.380253
 ---------------------------------------------------------------------

 Alpha  occ. eigenvalues --  -19.26470 -10.37167 -10.30846 -10.30275 -10.29795
 Alpha  occ. eigenvalues --  -10.29735 -10.29555 -10.29338 -10.29226 -10.29223
 Alpha  occ. eigenvalues --  -10.29094 -10.29066 -10.28977 -10.28902 -10.28230
 Alpha  occ. eigenvalues --   -1.14918  -0.98927  -0.96882  -0.91073  -0.86301
 Alpha  occ. eigenvalues --   -0.85748  -0.85253  -0.77801  -0.75993  -0.71555
 Alpha  occ. eigenvalues --   -0.70524  -0.68623  -0.65967  -0.63832  -0.61019
 Alpha  occ. eigenvalues --   -0.57954  -0.55948  -0.55640  -0.54170  -0.53587
 Alpha  occ. eigenvalues --   -0.52106  -0.51430  -0.50731  -0.49184  -0.48877
 Alpha  occ. eigenvalues --   -0.46352  -0.45598  -0.45081  -0.44042  -0.43341
 Alpha  occ. eigenvalues --   -0.41635  -0.40649  -0.36173  -0.34184  -0.33332
 Alpha  occ. eigenvalues --   -0.32073  -0.31005
 Alpha virt. eigenvalues --    0.03847   0.04208   0.04956   0.05663   0.06141
 Alpha virt. eigenvalues --    0.06624   0.07273   0.07565   0.08366   0.08982
 Alpha virt. eigenvalues --    0.09558   0.09951   0.10672   0.11044   0.11476

 Mulliken charges:
               1
     1  C    0.597688
     2  C   -0.459935
     3  C    0.539723
     4  C   -0.065653
     5  H    0.153244
     6  C   -0.635158
     7  C   -0.143762
     8  H    0.149678
     9  H    0.145065
    10  H    0.148616
    11  C   -0.994178
    12  H    0.177148
    13  H    0.202197
    14  C   -0.150792
    15  O   -0.212167
    16  H    0.244683
    17  C    1.230769
    18  C   -0.535083
    19  C   -0.323956
    20  C   -0.296683
    21  H    0.182429
    22  C   -0.377434
    23  H    0.149939
    24  C   -0.177958
    25  H    0.151297
    26  H    0.150565
    27  H    0.149718
 Sum of Mulliken charges =  -0.00000

 Dipole moment (field-independent basis, Debye):
    X=             -1.3092    Y=             -1.0927    Z=              0.2809  Tot=              1.7283
 Quadrupole moment (field-independent basis, Debye-Ang):
   XX=            -79.4737   YY=            -86.5537   ZZ=            -86.3550
   XY=             -4.9234   XZ=             -2.1754   YZ=              0.2696

  Exact polarizability:       0.000       0.000       0.000       0.000       0.000       0.000
 Approx polarizability:     197.068     -15.328     181.978     -14.676      -3.768     164.956

 Normal termination of Gaussian 16 at Fri Sep  8 10:42:29 2023.
