 Gaussian 16, Revision A.03,
 Gaussian 16:  ES64L-G16RevA.03 25-Dec-2016

 ----------------------------------------------------------------------
 # irc=(calcall,maxpoints=80,stepsize=5) wb97xd/6-311+g(d,p) integral=s
 uperfine scf=(xqc,maxcycle=512)
 ----------------------------------------------------------------------

 -------------------
 Title Card Required
 -------------------
 Symbolic Z-matrix:
 Charge =  0 Multiplicity = 1

 SCF Done:  E(RwB97XD) =  -644.435980393     A.U. after   17 cycles
 SCF Done:  E(RwB97XD) =  -644.436045752     A.U. after   14 cycles
 SCF Done:  E(RwB97XD) =  -644.436250223     A.U. after   14 cycles
 SCF Done:  E(RwB97XD) =  -644.436585214     A.U. after   14 cycles
 SCF Done:  E(RwB97XD) =  -644.437024993     A.U. after   14 cycles
 SCF Done:  E(RwB97XD) =  -644.437535548     A.U. after   14 cycles
 SCF Done:  E(RwB97XD) =  -644.438088255     A.U. after   14 cycles
 SCF Done:  E(RwB97XD) =  -644.438668933     A.U. after   14 cycles
 SCF Done:  E(RwB97XD) =  -644.439274113     A.U. after   13 cycles
 SCF Done:  E(RwB97XD) =  -644.439903656     A.U. after   13 cycles
 SCF Done:  E(RwB97XD) =  -644.450419804     A.U. after   11 cycles
 SCF Done:  E(RwB97XD) =  -644.450538323     A.U. after   11 cycles
 SCF Done:  E(RwB97XD) =  -644.450654972     A.U. after   11 cycles
 SCF Done:  E(RwB97XD) =  -644.450769773     A.U. after   11 cycles
 SCF Done:  E(RwB97XD) =  -644.450882731     A.U. after   11 cycles
 SCF Done:  E(RwB97XD) =  -644.450993830     A.U. after   11 cycles
 SCF Done:  E(RwB97XD) =  -644.451103059     A.U. after   11 cycles
 SCF Done:  E(RwB97XD) =  -644.451210432     A.U. after   11 cycles
 SCF Done:  E(RwB97XD) =  -644.451315984     A.U. after   11 cycles
 SCF Done:  E(RwB97XD) =  -644.451419749     A.U. after   11 cycles

                          Input orientation:
 ---------------------------------------------------------------------
 Center     Atomic      Atomic             Coordinates (Angstroms)
 Number     Number       Type             X           Y           Z
 ---------------------------------------------------------------------
      1          6           0       -0.687849    0.978078    0.188322
      2          6           0       -0.181725   -0.407197    0.081834
      3          6           0       -1.080442   -1.482901   -0.274531
      4          6           0       -2.410501   -1.264617   -0.281390
      5          6           0       -2.932134    0.045177    0.018572
      6          6           0       -2.131032    1.108512    0.256019
      7          8           0        0.063179    1.956611    0.136411
      8          6           0        1.115047   -0.677907    0.352268
      9          1           0       -0.672767   -2.468083   -0.464914
     10          1           0       -2.525793    2.101459    0.432182
     11          1           0        1.423323    1.646523   -0.792253
     12          1           0       -4.008937    0.178819    0.030154
     13          1           0       -3.097966   -2.072664   -0.496536
     14          9           0        2.057828    1.185813   -1.323812
     15          9           0        1.911378    0.065057    1.040829
     16          9           0        1.696783   -1.791274    0.021197
 ---------------------------------------------------------------------

 Alpha  occ. eigenvalues --  -24.90110 -24.89774 -24.76003 -19.25443 -10.52781
 Alpha  occ. eigenvalues --  -10.40384 -10.34107 -10.33644 -10.33505 -10.31905
 Alpha  occ. eigenvalues --  -10.31328  -1.46425  -1.39680  -1.26426  -1.16574
 Alpha  occ. eigenvalues --   -0.99490  -0.93128  -0.87279  -0.81709  -0.76380
 Alpha  occ. eigenvalues --   -0.74502  -0.70870  -0.67841  -0.67750  -0.62553
 Alpha  occ. eigenvalues --   -0.61102  -0.59306  -0.59133  -0.58575  -0.56405
 Alpha  occ. eigenvalues --   -0.54736  -0.54346  -0.52830  -0.49326  -0.47947
 Alpha  occ. eigenvalues --   -0.47163  -0.47031  -0.45201  -0.39268  -0.37209
 Alpha  occ. eigenvalues --   -0.32591
 Alpha virt. eigenvalues --   -0.05304   0.04412   0.05034   0.06573   0.06770
 Alpha virt. eigenvalues --    0.07602   0.09061   0.09569   0.10104   0.11117
 Alpha virt. eigenvalues --    0.12351   0.12793   0.12914   0.14219   0.15488

 Mulliken charges:
               1
     1  C   -0.398565
     2  C    1.022726
     3  C   -0.600659
     4  C   -0.112798
     5  C   -0.324626
     6  C    0.125848
     7  O   -0.301561
     8  C   -0.041286
     9  H    0.173795
    10  H    0.175171
    11  H    0.246166
    12  H    0.170003
    13  H    0.164092
    14  F   -0.265699
    15  F    0.000836
    16  F   -0.033444
 Sum of Mulliken charges =  -0.00000

 Dipole moment (field-independent basis, Debye):
    X=             -4.0000    Y=             -3.1704    Z=              1.3590  Tot=              5.2819
 Quadrupole moment (field-independent basis, Debye-Ang):
   XX=            -56.7976   YY=            -61.3539   ZZ=            -64.9684
   XY=             -2.5278   XZ=              4.0254   YZ=              1.7136

  Exact polarizability:   0.000   0.000   0.000   0.000   0.000   0.000
 Approx polarizability: 132.181  -0.085 112.140   5.030   7.989  61.885

 Normal termination of Gaussian 16 at Wed Mar 27 22:13:01 2024.
