 Gaussian 16, Revision C.01,
 Gaussian 16:  ES64L-G16RevC.01  3-Jul-2019

 ----------------------------------------------------------------------
 # irc=(calcall,maxpoints=80,stepsize=5) def2tzvpp empiricaldispersion=
 gd3bj scf=xqc guess=(mix,always) upbe1pbe
 ----------------------------------------------------------------------

 ----------
 Title Card
 ----------
 Symbolic Z-matrix:
 Charge =  0 Multiplicity = 1

 SCF Done:  E(UPBE1PBE) =  -271.184652943     A.U. after   16 cycles
 SCF Done:  E(UPBE1PBE) =  -271.184867414     A.U. after   16 cycles
 SCF Done:  E(UPBE1PBE) =  -271.185586181     A.U. after   16 cycles
 SCF Done:  E(UPBE1PBE) =  -271.186902034     A.U. after   16 cycles
 SCF Done:  E(UPBE1PBE) =  -271.188876378     A.U. after   17 cycles
 SCF Done:  E(UPBE1PBE) =  -271.191535342     A.U. after   18 cycles
 SCF Done:  E(UPBE1PBE) =  -271.194871718     A.U. after   19 cycles
 SCF Done:  E(UPBE1PBE) =  -271.198850932     A.U. after   20 cycles
 SCF Done:  E(UPBE1PBE) =  -271.203418960     A.U. after   21 cycles
 SCF Done:  E(UPBE1PBE) =  -271.208510292     A.U. after   24 cycles
 SCF Done:  E(UPBE1PBE) =  -271.223417957     A.U. after   18 cycles
 SCF Done:  E(UPBE1PBE) =  -271.226551661     A.U. after   17 cycles
 SCF Done:  E(UPBE1PBE) =  -271.229554760     A.U. after   17 cycles
 SCF Done:  E(UPBE1PBE) =  -271.232370072     A.U. after   17 cycles
 SCF Done:  E(UPBE1PBE) =  -271.234931616     A.U. after   16 cycles
 SCF Done:  E(UPBE1PBE) =  -271.237166740     A.U. after   16 cycles
 SCF Done:  E(UPBE1PBE) =  -271.238999977     A.U. after   16 cycles
 SCF Done:  E(UPBE1PBE) =  -271.240360427     A.U. after   16 cycles
 SCF Done:  E(UPBE1PBE) =  -271.241196569     A.U. after   16 cycles
 SCF Done:  E(UPBE1PBE) =  -271.241504766     A.U. after   16 cycles

                          Input orientation:
 ---------------------------------------------------------------------
 Center     Atomic      Atomic             Coordinates (Angstroms)
 Number     Number       Type             X           Y           Z
 ---------------------------------------------------------------------
      1          6           0        0.507239    1.452547   -0.000033
      2          6           0        1.263774    0.151887    0.000018
      3          6           0        0.498933   -0.904103    0.753275
      4          6           0       -0.954429   -0.400238    0.752685
      5          6           0       -0.895404    0.903601   -0.000042
      6          6           0       -0.954402   -0.400282   -0.752695
      7          6           0        0.498960   -0.904147   -0.753205
      8          1           0        2.345046    0.114486    0.000038
      9          1           0        0.716624    2.053321   -0.888983
     10          1           0       -1.764432    1.548085   -0.000076
     11          1           0        0.716593    2.053373    0.888888
     12          1           0       -1.739636   -0.676129   -1.440530
     13          1           0        0.943099   -1.608864   -1.440244
     14          1           0       -1.739686   -0.676045    1.440508
     15          1           0        0.943049   -1.608780    1.440371
 ---------------------------------------------------------------------

 Alpha  occ. eigenvalues --  -10.22537 -10.22526 -10.22497 -10.22488 -10.22481
 Alpha  occ. eigenvalues --  -10.22464 -10.21452  -0.97648  -0.80918  -0.75650
 Alpha  occ. eigenvalues --   -0.65582  -0.58521  -0.56837  -0.55422  -0.53304
 Alpha  occ. eigenvalues --   -0.45324  -0.44657  -0.44595  -0.40840  -0.36340
 Alpha  occ. eigenvalues --   -0.35351  -0.32478  -0.29211  -0.28092  -0.23359
 Alpha virt. eigenvalues --    0.05749   0.07345   0.08664   0.09046   0.10942
 Alpha virt. eigenvalues --    0.10944   0.11472   0.11494   0.13117   0.13784
 Alpha virt. eigenvalues --    0.14821   0.16657   0.17811   0.18664   0.18700

  Beta  occ. eigenvalues --  -10.22537 -10.22526 -10.22497 -10.22488 -10.22481
  Beta  occ. eigenvalues --  -10.22464 -10.21452  -0.97648  -0.80918  -0.75650
  Beta  occ. eigenvalues --   -0.65582  -0.58521  -0.56837  -0.55422  -0.53304
  Beta  occ. eigenvalues --   -0.45324  -0.44657  -0.44595  -0.40840  -0.36340
  Beta  occ. eigenvalues --   -0.35351  -0.32478  -0.29211  -0.28092  -0.23359
  Beta virt. eigenvalues --    0.05749   0.07345   0.08664   0.09046   0.10942
  Beta virt. eigenvalues --    0.10944   0.11472   0.11494   0.13117   0.13784
  Beta virt. eigenvalues --    0.14821   0.16657   0.17811   0.18664   0.18700

 Mulliken charges and spin densities:
               1          2
     1  C   -0.012992  -0.000000
     2  C   -0.124299   0.000000
     3  C   -0.102366   0.000000
     4  C   -0.101706  -0.000000
     5  C   -0.125109   0.000000
     6  C   -0.101706   0.000000
     7  C   -0.102366  -0.000000
     8  H    0.068021  -0.000000
     9  H    0.052110  -0.000000
    10  H    0.067842   0.000000
    11  H    0.052110   0.000000
    12  H    0.107779   0.000000
    13  H    0.107453  -0.000000
    14  H    0.107779  -0.000000
    15  H    0.107453   0.000000
 Sum of Mulliken charges =  -0.00000   0.00000

 Dipole moment (field-independent basis, Debye):
    X=             -0.0040    Y=             -0.0153    Z=              0.0000  Tot=              0.0158
 Quadrupole moment (field-independent basis, Debye-Ang):
   XX=            -39.6278   YY=            -41.6112   ZZ=            -41.9154
   XY=             -0.7689   XZ=              0.0001   YZ=             -0.0000

  Exact polarizability:       0.000       0.000       0.000       0.000       0.000       0.000
 Approx polarizability:      95.237       1.828      99.806      -0.000       0.000      99.365

 Normal termination of Gaussian 16 at Mon Feb  3 19:02:43 2025.
